
       256 atoms
         0 bonds
         0 angles
         0 dihedrals
         0 impropers

         1 atom types
         0 bond types
         0 angle types
         0 dihedral types

         0      23.2 xlo xhi
         0      23.2 ylo yhi
         0      12.6 zlo zhi

    Atoms
    
     1     1       0.0        0.0        0.0
     2     1       2.9        0.0     0.7875
     3     1       2.9        2.9      1.575
     4     1       5.8        2.9     2.3625
     5     1       0.0        0.0       3.15
     6     1       2.9        0.0     3.9375
     7     1       2.9        2.9      4.725
     8     1       5.8        2.9     5.5125
     9     1       0.0        0.0        6.3
    10     1       2.9        0.0     7.0875
    11     1       2.9        2.9      7.875
    12     1       5.8        2.9     8.6625
    13     1       0.0        0.0       9.45
    14     1       2.9        0.0    10.2375
    15     1       2.9        2.9     11.025
    16     1       5.8        2.9    11.8125
    17     1       0.0        5.8        0.0
    18     1       2.9        5.8     0.7875
    19     1       2.9        8.7      1.575
    20     1       5.8        8.7     2.3625
    21     1       0.0        5.8       3.15
    22     1       2.9        5.8     3.9375
    23     1       2.9        8.7      4.725
    24     1       5.8        8.7     5.5125
    25     1       0.0        5.8        6.3
    26     1       2.9        5.8     7.0875
    27     1       2.9        8.7      7.875
    28     1       5.8        8.7     8.6625
    29     1       0.0        5.8       9.45
    30     1       2.9        5.8    10.2375
    31     1       2.9        8.7     11.025
    32     1       5.8        8.7    11.8125
    33     1       0.0       11.6        0.0
    34     1       2.9       11.6     0.7875
    35     1       2.9       14.5      1.575
    36     1       5.8       14.5     2.3625
    37     1       0.0       11.6       3.15
    38     1       2.9       11.6     3.9375
    39     1       2.9       14.5      4.725
    40     1       5.8       14.5     5.5125
    41     1       0.0       11.6        6.3
    42     1       2.9       11.6     7.0875
    43     1       2.9       14.5      7.875
    44     1       5.8       14.5     8.6625
    45     1       0.0       11.6       9.45
    46     1       2.9       11.6    10.2375
    47     1       2.9       14.5     11.025
    48     1       5.8       14.5    11.8125
    49     1       0.0       17.4        0.0
    50     1       2.9       17.4     0.7875
    51     1       2.9       20.3      1.575
    52     1       5.8       20.3     2.3625
    53     1       0.0       17.4       3.15
    54     1       2.9       17.4     3.9375
    55     1       2.9       20.3      4.725
    56     1       5.8       20.3     5.5125
    57     1       0.0       17.4        6.3
    58     1       2.9       17.4     7.0875
    59     1       2.9       20.3      7.875
    60     1       5.8       20.3     8.6625
    61     1       0.0       17.4       9.45
    62     1       2.9       17.4    10.2375
    63     1       2.9       20.3     11.025
    64     1       5.8       20.3    11.8125
    65     1       5.8        0.0        0.0
    66     1       8.7        0.0     0.7875
    67     1       8.7        2.9      1.575
    68     1      11.6        2.9     2.3625
    69     1       5.8        0.0       3.15
    70     1       8.7        0.0     3.9375
    71     1       8.7        2.9      4.725
    72     1      11.6        2.9     5.5125
    73     1       5.8        0.0        6.3
    74     1       8.7        0.0     7.0875
    75     1       8.7        2.9      7.875
    76     1      11.6        2.9     8.6625
    77     1       5.8        0.0       9.45
    78     1       8.7        0.0    10.2375
    79     1       8.7        2.9     11.025
    80     1      11.6        2.9    11.8125
    81     1       5.8        5.8        0.0
    82     1       8.7        5.8     0.7875
    83     1       8.7        8.7      1.575
    84     1      11.6        8.7     2.3625
    85     1       5.8        5.8       3.15
    86     1       8.7        5.8     3.9375
    87     1       8.7        8.7      4.725
    88     1      11.6        8.7     5.5125
    89     1       5.8        5.8        6.3
    90     1       8.7        5.8     7.0875
    91     1       8.7        8.7      7.875
    92     1      11.6        8.7     8.6625
    93     1       5.8        5.8       9.45
    94     1       8.7        5.8    10.2375
    95     1       8.7        8.7     11.025
    96     1      11.6        8.7    11.8125
    97     1       5.8       11.6        0.0
    98     1       8.7       11.6     0.7875
    99     1       8.7       14.5      1.575
   100     1      11.6       14.5     2.3625
   101     1       5.8       11.6       3.15
   102     1       8.7       11.6     3.9375
   103     1       8.7       14.5      4.725
   104     1      11.6       14.5     5.5125
   105     1       5.8       11.6        6.3
   106     1       8.7       11.6     7.0875
   107     1       8.7       14.5      7.875
   108     1      11.6       14.5     8.6625
   109     1       5.8       11.6       9.45
   110     1       8.7       11.6    10.2375
   111     1       8.7       14.5     11.025
   112     1      11.6       14.5    11.8125
   113     1       5.8       17.4        0.0
   114     1       8.7       17.4     0.7875
   115     1       8.7       20.3      1.575
   116     1      11.6       20.3     2.3625
   117     1       5.8       17.4       3.15
   118     1       8.7       17.4     3.9375
   119     1       8.7       20.3      4.725
   120     1      11.6       20.3     5.5125
   121     1       5.8       17.4        6.3
   122     1       8.7       17.4     7.0875
   123     1       8.7       20.3      7.875
   124     1      11.6       20.3     8.6625
   125     1       5.8       17.4       9.45
   126     1       8.7       17.4    10.2375
   127     1       8.7       20.3     11.025
   128     1      11.6       20.3    11.8125
   129     1      11.6        0.0        0.0
   130     1      14.5        0.0     0.7875
   131     1      14.5        2.9      1.575
   132     1      17.4        2.9     2.3625
   133     1      11.6        0.0       3.15
   134     1      14.5        0.0     3.9375
   135     1      14.5        2.9      4.725
   136     1      17.4        2.9     5.5125
   137     1      11.6        0.0        6.3
   138     1      14.5        0.0     7.0875
   139     1      14.5        2.9      7.875
   140     1      17.4        2.9     8.6625
   141     1      11.6        0.0       9.45
   142     1      14.5        0.0    10.2375
   143     1      14.5        2.9     11.025
   144     1      17.4        2.9    11.8125
   145     1      11.6        5.8        0.0
   146     1      14.5        5.8     0.7875
   147     1      14.5        8.7      1.575
   148     1      17.4        8.7     2.3625
   149     1      11.6        5.8       3.15
   150     1      14.5        5.8     3.9375
   151     1      14.5        8.7      4.725
   152     1      17.4        8.7     5.5125
   153     1      11.6        5.8        6.3
   154     1      14.5        5.8     7.0875
   155     1      14.5        8.7      7.875
   156     1      17.4        8.7     8.6625
   157     1      11.6        5.8       9.45
   158     1      14.5        5.8    10.2375
   159     1      14.5        8.7     11.025
   160     1      17.4        8.7    11.8125
   161     1      11.6       11.6        0.0
   162     1      14.5       11.6     0.7875
   163     1      14.5       14.5      1.575
   164     1      17.4       14.5     2.3625
   165     1      11.6       11.6       3.15
   166     1      14.5       11.6     3.9375
   167     1      14.5       14.5      4.725
   168     1      17.4       14.5     5.5125
   169     1      11.6       11.6        6.3
   170     1      14.5       11.6     7.0875
   171     1      14.5       14.5      7.875
   172     1      17.4       14.5     8.6625
   173     1      11.6       11.6       9.45
   174     1      14.5       11.6    10.2375
   175     1      14.5       14.5     11.025
   176     1      17.4       14.5    11.8125
   177     1      11.6       17.4        0.0
   178     1      14.5       17.4     0.7875
   179     1      14.5       20.3      1.575
   180     1      17.4       20.3     2.3625
   181     1      11.6       17.4       3.15
   182     1      14.5       17.4     3.9375
   183     1      14.5       20.3      4.725
   184     1      17.4       20.3     5.5125
   185     1      11.6       17.4        6.3
   186     1      14.5       17.4     7.0875
   187     1      14.5       20.3      7.875
   188     1      17.4       20.3     8.6625
   189     1      11.6       17.4       9.45
   190     1      14.5       17.4    10.2375
   191     1      14.5       20.3     11.025
   192     1      17.4       20.3    11.8125
   193     1      17.4        0.0        0.0
   194     1      20.3        0.0     0.7875
   195     1      20.3        2.9      1.575
   196     1      23.2        2.9     2.3625
   197     1      17.4        0.0       3.15
   198     1      20.3        0.0     3.9375
   199     1      20.3        2.9      4.725
   200     1      23.2        2.9     5.5125
   201     1      17.4        0.0        6.3
   202     1      20.3        0.0     7.0875
   203     1      20.3        2.9      7.875
   204     1      23.2        2.9     8.6625
   205     1      17.4        0.0       9.45
   206     1      20.3        0.0    10.2375
   207     1      20.3        2.9     11.025
   208     1      23.2        2.9    11.8125
   209     1      17.4        5.8        0.0
   210     1      20.3        5.8     0.7875
   211     1      20.3        8.7      1.575
   212     1      23.2        8.7     2.3625
   213     1      17.4        5.8       3.15
   214     1      20.3        5.8     3.9375
   215     1      20.3        8.7      4.725
   216     1      23.2        8.7     5.5125
   217     1      17.4        5.8        6.3
   218     1      20.3        5.8     7.0875
   219     1      20.3        8.7      7.875
   220     1      23.2        8.7     8.6625
   221     1      17.4        5.8       9.45
   222     1      20.3        5.8    10.2375
   223     1      20.3        8.7     11.025
   224     1      23.2        8.7    11.8125
   225     1      17.4       11.6        0.0
   226     1      20.3       11.6     0.7875
   227     1      20.3       14.5      1.575
   228     1      23.2       14.5     2.3625
   229     1      17.4       11.6       3.15
   230     1      20.3       11.6     3.9375
   231     1      20.3       14.5      4.725
   232     1      23.2       14.5     5.5125
   233     1      17.4       11.6        6.3
   234     1      20.3       11.6     7.0875
   235     1      20.3       14.5      7.875
   236     1      23.2       14.5     8.6625
   237     1      17.4       11.6       9.45
   238     1      20.3       11.6    10.2375
   239     1      20.3       14.5     11.025
   240     1      23.2       14.5    11.8125
   241     1      17.4       17.4        0.0
   242     1      20.3       17.4     0.7875
   243     1      20.3       20.3      1.575
   244     1      23.2       20.3     2.3625
   245     1      17.4       17.4       3.15
   246     1      20.3       17.4     3.9375
   247     1      20.3       20.3      4.725
   248     1      23.2       20.3     5.5125
   249     1      17.4       17.4        6.3
   250     1      20.3       17.4     7.0875
   251     1      20.3       20.3      7.875
   252     1      23.2       20.3     8.6625
   253     1      17.4       17.4       9.45
   254     1      20.3       17.4    10.2375
   255     1      20.3       20.3     11.025
   256     1      23.2       20.3    11.8125