
   864 atoms
     0 bonds
     0 angles
     0 dihedrals
     0 impropers

     1 atom types
     0 bond types
     0 angle types
     0 dihedral types

     0    35.106 xlo xhi
     0    35.106 ylo yhi
     0     19.29 zlo zhi

Atoms

     1     1       0.0        0.0        0.0
     2     1    2.9255        0.0    0.80375
     3     1    2.9255     2.9255     1.6075
     4     1     5.851     2.9255    2.41125
     5     1       0.0        0.0      3.215
     6     1    2.9255        0.0    4.01875
     7     1    2.9255     2.9255     4.8225
     8     1     5.851     2.9255    5.62625
     9     1       0.0        0.0       6.43
    10     1    2.9255        0.0    7.23375
    11     1    2.9255     2.9255     8.0375
    12     1     5.851     2.9255    8.84125
    13     1       0.0        0.0      9.645
    14     1    2.9255        0.0   10.44875
    15     1    2.9255     2.9255    11.2525
    16     1     5.851     2.9255   12.05625
    17     1       0.0        0.0      12.86
    18     1    2.9255        0.0   13.66375
    19     1    2.9255     2.9255    14.4675
    20     1     5.851     2.9255   15.27125
    21     1       0.0        0.0     16.075
    22     1    2.9255        0.0   16.87875
    23     1    2.9255     2.9255    17.6825
    24     1     5.851     2.9255   18.48625
    25     1       0.0      5.851        0.0
    26     1    2.9255      5.851    0.80375
    27     1    2.9255     8.7765     1.6075
    28     1     5.851     8.7765    2.41125
    29     1       0.0      5.851      3.215
    30     1    2.9255      5.851    4.01875
    31     1    2.9255     8.7765     4.8225
    32     1     5.851     8.7765    5.62625
    33     1       0.0      5.851       6.43
    34     1    2.9255      5.851    7.23375
    35     1    2.9255     8.7765     8.0375
    36     1     5.851     8.7765    8.84125
    37     1       0.0      5.851      9.645
    38     1    2.9255      5.851   10.44875
    39     1    2.9255     8.7765    11.2525
    40     1     5.851     8.7765   12.05625
    41     1       0.0      5.851      12.86
    42     1    2.9255      5.851   13.66375
    43     1    2.9255     8.7765    14.4675
    44     1     5.851     8.7765   15.27125
    45     1       0.0      5.851     16.075
    46     1    2.9255      5.851   16.87875
    47     1    2.9255     8.7765    17.6825
    48     1     5.851     8.7765   18.48625
    49     1       0.0     11.702        0.0
    50     1    2.9255     11.702    0.80375
    51     1    2.9255    14.6275     1.6075
    52     1     5.851    14.6275    2.41125
    53     1       0.0     11.702      3.215
    54     1    2.9255     11.702    4.01875
    55     1    2.9255    14.6275     4.8225
    56     1     5.851    14.6275    5.62625
    57     1       0.0     11.702       6.43
    58     1    2.9255     11.702    7.23375
    59     1    2.9255    14.6275     8.0375
    60     1     5.851    14.6275    8.84125
    61     1       0.0     11.702      9.645
    62     1    2.9255     11.702   10.44875
    63     1    2.9255    14.6275    11.2525
    64     1     5.851    14.6275   12.05625
    65     1       0.0     11.702      12.86
    66     1    2.9255     11.702   13.66375
    67     1    2.9255    14.6275    14.4675
    68     1     5.851    14.6275   15.27125
    69     1       0.0     11.702     16.075
    70     1    2.9255     11.702   16.87875
    71     1    2.9255    14.6275    17.6825
    72     1     5.851    14.6275   18.48625
    73     1       0.0     17.553        0.0
    74     1    2.9255     17.553    0.80375
    75     1    2.9255    20.4785     1.6075
    76     1     5.851    20.4785    2.41125
    77     1       0.0     17.553      3.215
    78     1    2.9255     17.553    4.01875
    79     1    2.9255    20.4785     4.8225
    80     1     5.851    20.4785    5.62625
    81     1       0.0     17.553       6.43
    82     1    2.9255     17.553    7.23375
    83     1    2.9255    20.4785     8.0375
    84     1     5.851    20.4785    8.84125
    85     1       0.0     17.553      9.645
    86     1    2.9255     17.553   10.44875
    87     1    2.9255    20.4785    11.2525
    88     1     5.851    20.4785   12.05625
    89     1       0.0     17.553      12.86
    90     1    2.9255     17.553   13.66375
    91     1    2.9255    20.4785    14.4675
    92     1     5.851    20.4785   15.27125
    93     1       0.0     17.553     16.075
    94     1    2.9255     17.553   16.87875
    95     1    2.9255    20.4785    17.6825
    96     1     5.851    20.4785   18.48625
    97     1       0.0     23.404        0.0
    98     1    2.9255     23.404    0.80375
    99     1    2.9255    26.3295     1.6075
   100     1     5.851    26.3295    2.41125
   101     1       0.0     23.404      3.215
   102     1    2.9255     23.404    4.01875
   103     1    2.9255    26.3295     4.8225
   104     1     5.851    26.3295    5.62625
   105     1       0.0     23.404       6.43
   106     1    2.9255     23.404    7.23375
   107     1    2.9255    26.3295     8.0375
   108     1     5.851    26.3295    8.84125
   109     1       0.0     23.404      9.645
   110     1    2.9255     23.404   10.44875
   111     1    2.9255    26.3295    11.2525
   112     1     5.851    26.3295   12.05625
   113     1       0.0     23.404      12.86
   114     1    2.9255     23.404   13.66375
   115     1    2.9255    26.3295    14.4675
   116     1     5.851    26.3295   15.27125
   117     1       0.0     23.404     16.075
   118     1    2.9255     23.404   16.87875
   119     1    2.9255    26.3295    17.6825
   120     1     5.851    26.3295   18.48625
   121     1       0.0     29.255        0.0
   122     1    2.9255     29.255    0.80375
   123     1    2.9255    32.1805     1.6075
   124     1     5.851    32.1805    2.41125
   125     1       0.0     29.255      3.215
   126     1    2.9255     29.255    4.01875
   127     1    2.9255    32.1805     4.8225
   128     1     5.851    32.1805    5.62625
   129     1       0.0     29.255       6.43
   130     1    2.9255     29.255    7.23375
   131     1    2.9255    32.1805     8.0375
   132     1     5.851    32.1805    8.84125
   133     1       0.0     29.255      9.645
   134     1    2.9255     29.255   10.44875
   135     1    2.9255    32.1805    11.2525
   136     1     5.851    32.1805   12.05625
   137     1       0.0     29.255      12.86
   138     1    2.9255     29.255   13.66375
   139     1    2.9255    32.1805    14.4675
   140     1     5.851    32.1805   15.27125
   141     1       0.0     29.255     16.075
   142     1    2.9255     29.255   16.87875
   143     1    2.9255    32.1805    17.6825
   144     1     5.851    32.1805   18.48625
   145     1     5.851        0.0        0.0
   146     1    8.7765        0.0    0.80375
   147     1    8.7765     2.9255     1.6075
   148     1    11.702     2.9255    2.41125
   149     1     5.851        0.0      3.215
   150     1    8.7765        0.0    4.01875
   151     1    8.7765     2.9255     4.8225
   152     1    11.702     2.9255    5.62625
   153     1     5.851        0.0       6.43
   154     1    8.7765        0.0    7.23375
   155     1    8.7765     2.9255     8.0375
   156     1    11.702     2.9255    8.84125
   157     1     5.851        0.0      9.645
   158     1    8.7765        0.0   10.44875
   159     1    8.7765     2.9255    11.2525
   160     1    11.702     2.9255   12.05625
   161     1     5.851        0.0      12.86
   162     1    8.7765        0.0   13.66375
   163     1    8.7765     2.9255    14.4675
   164     1    11.702     2.9255   15.27125
   165     1     5.851        0.0     16.075
   166     1    8.7765        0.0   16.87875
   167     1    8.7765     2.9255    17.6825
   168     1    11.702     2.9255   18.48625
   169     1     5.851      5.851        0.0
   170     1    8.7765      5.851    0.80375
   171     1    8.7765     8.7765     1.6075
   172     1    11.702     8.7765    2.41125
   173     1     5.851      5.851      3.215
   174     1    8.7765      5.851    4.01875
   175     1    8.7765     8.7765     4.8225
   176     1    11.702     8.7765    5.62625
   177     1     5.851      5.851       6.43
   178     1    8.7765      5.851    7.23375
   179     1    8.7765     8.7765     8.0375
   180     1    11.702     8.7765    8.84125
   181     1     5.851      5.851      9.645
   182     1    8.7765      5.851   10.44875
   183     1    8.7765     8.7765    11.2525
   184     1    11.702     8.7765   12.05625
   185     1     5.851      5.851      12.86
   186     1    8.7765      5.851   13.66375
   187     1    8.7765     8.7765    14.4675
   188     1    11.702     8.7765   15.27125
   189     1     5.851      5.851     16.075
   190     1    8.7765      5.851   16.87875
   191     1    8.7765     8.7765    17.6825
   192     1    11.702     8.7765   18.48625
   193     1     5.851     11.702        0.0
   194     1    8.7765     11.702    0.80375
   195     1    8.7765    14.6275     1.6075
   196     1    11.702    14.6275    2.41125
   197     1     5.851     11.702      3.215
   198     1    8.7765     11.702    4.01875
   199     1    8.7765    14.6275     4.8225
   200     1    11.702    14.6275    5.62625
   201     1     5.851     11.702       6.43
   202     1    8.7765     11.702    7.23375
   203     1    8.7765    14.6275     8.0375
   204     1    11.702    14.6275    8.84125
   205     1     5.851     11.702      9.645
   206     1    8.7765     11.702   10.44875
   207     1    8.7765    14.6275    11.2525
   208     1    11.702    14.6275   12.05625
   209     1     5.851     11.702      12.86
   210     1    8.7765     11.702   13.66375
   211     1    8.7765    14.6275    14.4675
   212     1    11.702    14.6275   15.27125
   213     1     5.851     11.702     16.075
   214     1    8.7765     11.702   16.87875
   215     1    8.7765    14.6275    17.6825
   216     1    11.702    14.6275   18.48625
   217     1     5.851     17.553        0.0
   218     1    8.7765     17.553    0.80375
   219     1    8.7765    20.4785     1.6075
   220     1    11.702    20.4785    2.41125
   221     1     5.851     17.553      3.215
   222     1    8.7765     17.553    4.01875
   223     1    8.7765    20.4785     4.8225
   224     1    11.702    20.4785    5.62625
   225     1     5.851     17.553       6.43
   226     1    8.7765     17.553    7.23375
   227     1    8.7765    20.4785     8.0375
   228     1    11.702    20.4785    8.84125
   229     1     5.851     17.553      9.645
   230     1    8.7765     17.553   10.44875
   231     1    8.7765    20.4785    11.2525
   232     1    11.702    20.4785   12.05625
   233     1     5.851     17.553      12.86
   234     1    8.7765     17.553   13.66375
   235     1    8.7765    20.4785    14.4675
   236     1    11.702    20.4785   15.27125
   237     1     5.851     17.553     16.075
   238     1    8.7765     17.553   16.87875
   239     1    8.7765    20.4785    17.6825
   240     1    11.702    20.4785   18.48625
   241     1     5.851     23.404        0.0
   242     1    8.7765     23.404    0.80375
   243     1    8.7765    26.3295     1.6075
   244     1    11.702    26.3295    2.41125
   245     1     5.851     23.404      3.215
   246     1    8.7765     23.404    4.01875
   247     1    8.7765    26.3295     4.8225
   248     1    11.702    26.3295    5.62625
   249     1     5.851     23.404       6.43
   250     1    8.7765     23.404    7.23375
   251     1    8.7765    26.3295     8.0375
   252     1    11.702    26.3295    8.84125
   253     1     5.851     23.404      9.645
   254     1    8.7765     23.404   10.44875
   255     1    8.7765    26.3295    11.2525
   256     1    11.702    26.3295   12.05625
   257     1     5.851     23.404      12.86
   258     1    8.7765     23.404   13.66375
   259     1    8.7765    26.3295    14.4675
   260     1    11.702    26.3295   15.27125
   261     1     5.851     23.404     16.075
   262     1    8.7765     23.404   16.87875
   263     1    8.7765    26.3295    17.6825
   264     1    11.702    26.3295   18.48625
   265     1     5.851     29.255        0.0
   266     1    8.7765     29.255    0.80375
   267     1    8.7765    32.1805     1.6075
   268     1    11.702    32.1805    2.41125
   269     1     5.851     29.255      3.215
   270     1    8.7765     29.255    4.01875
   271     1    8.7765    32.1805     4.8225
   272     1    11.702    32.1805    5.62625
   273     1     5.851     29.255       6.43
   274     1    8.7765     29.255    7.23375
   275     1    8.7765    32.1805     8.0375
   276     1    11.702    32.1805    8.84125
   277     1     5.851     29.255      9.645
   278     1    8.7765     29.255   10.44875
   279     1    8.7765    32.1805    11.2525
   280     1    11.702    32.1805   12.05625
   281     1     5.851     29.255      12.86
   282     1    8.7765     29.255   13.66375
   283     1    8.7765    32.1805    14.4675
   284     1    11.702    32.1805   15.27125
   285     1     5.851     29.255     16.075
   286     1    8.7765     29.255   16.87875
   287     1    8.7765    32.1805    17.6825
   288     1    11.702    32.1805   18.48625
   289     1    11.702        0.0        0.0
   290     1   14.6275        0.0    0.80375
   291     1   14.6275     2.9255     1.6075
   292     1    17.553     2.9255    2.41125
   293     1    11.702        0.0      3.215
   294     1   14.6275        0.0    4.01875
   295     1   14.6275     2.9255     4.8225
   296     1    17.553     2.9255    5.62625
   297     1    11.702        0.0       6.43
   298     1   14.6275        0.0    7.23375
   299     1   14.6275     2.9255     8.0375
   300     1    17.553     2.9255    8.84125
   301     1    11.702        0.0      9.645
   302     1   14.6275        0.0   10.44875
   303     1   14.6275     2.9255    11.2525
   304     1    17.553     2.9255   12.05625
   305     1    11.702        0.0      12.86
   306     1   14.6275        0.0   13.66375
   307     1   14.6275     2.9255    14.4675
   308     1    17.553     2.9255   15.27125
   309     1    11.702        0.0     16.075
   310     1   14.6275        0.0   16.87875
   311     1   14.6275     2.9255    17.6825
   312     1    17.553     2.9255   18.48625
   313     1    11.702      5.851        0.0
   314     1   14.6275      5.851    0.80375
   315     1   14.6275     8.7765     1.6075
   316     1    17.553     8.7765    2.41125
   317     1    11.702      5.851      3.215
   318     1   14.6275      5.851    4.01875
   319     1   14.6275     8.7765     4.8225
   320     1    17.553     8.7765    5.62625
   321     1    11.702      5.851       6.43
   322     1   14.6275      5.851    7.23375
   323     1   14.6275     8.7765     8.0375
   324     1    17.553     8.7765    8.84125
   325     1    11.702      5.851      9.645
   326     1   14.6275      5.851   10.44875
   327     1   14.6275     8.7765    11.2525
   328     1    17.553     8.7765   12.05625
   329     1    11.702      5.851      12.86
   330     1   14.6275      5.851   13.66375
   331     1   14.6275     8.7765    14.4675
   332     1    17.553     8.7765   15.27125
   333     1    11.702      5.851     16.075
   334     1   14.6275      5.851   16.87875
   335     1   14.6275     8.7765    17.6825
   336     1    17.553     8.7765   18.48625
   337     1    11.702     11.702        0.0
   338     1   14.6275     11.702    0.80375
   339     1   14.6275    14.6275     1.6075
   340     1    17.553    14.6275    2.41125
   341     1    11.702     11.702      3.215
   342     1   14.6275     11.702    4.01875
   343     1   14.6275    14.6275     4.8225
   344     1    17.553    14.6275    5.62625
   345     1    11.702     11.702       6.43
   346     1   14.6275     11.702    7.23375
   347     1   14.6275    14.6275     8.0375
   348     1    17.553    14.6275    8.84125
   349     1    11.702     11.702      9.645
   350     1   14.6275     11.702   10.44875
   351     1   14.6275    14.6275    11.2525
   352     1    17.553    14.6275   12.05625
   353     1    11.702     11.702      12.86
   354     1   14.6275     11.702   13.66375
   355     1   14.6275    14.6275    14.4675
   356     1    17.553    14.6275   15.27125
   357     1    11.702     11.702     16.075
   358     1   14.6275     11.702   16.87875
   359     1   14.6275    14.6275    17.6825
   360     1    17.553    14.6275   18.48625
   361     1    11.702     17.553        0.0
   362     1   14.6275     17.553    0.80375
   363     1   14.6275    20.4785     1.6075
   364     1    17.553    20.4785    2.41125
   365     1    11.702     17.553      3.215
   366     1   14.6275     17.553    4.01875
   367     1   14.6275    20.4785     4.8225
   368     1    17.553    20.4785    5.62625
   369     1    11.702     17.553       6.43
   370     1   14.6275     17.553    7.23375
   371     1   14.6275    20.4785     8.0375
   372     1    17.553    20.4785    8.84125
   373     1    11.702     17.553      9.645
   374     1   14.6275     17.553   10.44875
   375     1   14.6275    20.4785    11.2525
   376     1    17.553    20.4785   12.05625
   377     1    11.702     17.553      12.86
   378     1   14.6275     17.553   13.66375
   379     1   14.6275    20.4785    14.4675
   380     1    17.553    20.4785   15.27125
   381     1    11.702     17.553     16.075
   382     1   14.6275     17.553   16.87875
   383     1   14.6275    20.4785    17.6825
   384     1    17.553    20.4785   18.48625
   385     1    11.702     23.404        0.0
   386     1   14.6275     23.404    0.80375
   387     1   14.6275    26.3295     1.6075
   388     1    17.553    26.3295    2.41125
   389     1    11.702     23.404      3.215
   390     1   14.6275     23.404    4.01875
   391     1   14.6275    26.3295     4.8225
   392     1    17.553    26.3295    5.62625
   393     1    11.702     23.404       6.43
   394     1   14.6275     23.404    7.23375
   395     1   14.6275    26.3295     8.0375
   396     1    17.553    26.3295    8.84125
   397     1    11.702     23.404      9.645
   398     1   14.6275     23.404   10.44875
   399     1   14.6275    26.3295    11.2525
   400     1    17.553    26.3295   12.05625
   401     1    11.702     23.404      12.86
   402     1   14.6275     23.404   13.66375
   403     1   14.6275    26.3295    14.4675
   404     1    17.553    26.3295   15.27125
   405     1    11.702     23.404     16.075
   406     1   14.6275     23.404   16.87875
   407     1   14.6275    26.3295    17.6825
   408     1    17.553    26.3295   18.48625
   409     1    11.702     29.255        0.0
   410     1   14.6275     29.255    0.80375
   411     1   14.6275    32.1805     1.6075
   412     1    17.553    32.1805    2.41125
   413     1    11.702     29.255      3.215
   414     1   14.6275     29.255    4.01875
   415     1   14.6275    32.1805     4.8225
   416     1    17.553    32.1805    5.62625
   417     1    11.702     29.255       6.43
   418     1   14.6275     29.255    7.23375
   419     1   14.6275    32.1805     8.0375
   420     1    17.553    32.1805    8.84125
   421     1    11.702     29.255      9.645
   422     1   14.6275     29.255   10.44875
   423     1   14.6275    32.1805    11.2525
   424     1    17.553    32.1805   12.05625
   425     1    11.702     29.255      12.86
   426     1   14.6275     29.255   13.66375
   427     1   14.6275    32.1805    14.4675
   428     1    17.553    32.1805   15.27125
   429     1    11.702     29.255     16.075
   430     1   14.6275     29.255   16.87875
   431     1   14.6275    32.1805    17.6825
   432     1    17.553    32.1805   18.48625
   433     1    17.553        0.0        0.0
   434     1   20.4785        0.0    0.80375
   435     1   20.4785     2.9255     1.6075
   436     1    23.404     2.9255    2.41125
   437     1    17.553        0.0      3.215
   438     1   20.4785        0.0    4.01875
   439     1   20.4785     2.9255     4.8225
   440     1    23.404     2.9255    5.62625
   441     1    17.553        0.0       6.43
   442     1   20.4785        0.0    7.23375
   443     1   20.4785     2.9255     8.0375
   444     1    23.404     2.9255    8.84125
   445     1    17.553        0.0      9.645
   446     1   20.4785        0.0   10.44875
   447     1   20.4785     2.9255    11.2525
   448     1    23.404     2.9255   12.05625
   449     1    17.553        0.0      12.86
   450     1   20.4785        0.0   13.66375
   451     1   20.4785     2.9255    14.4675
   452     1    23.404     2.9255   15.27125
   453     1    17.553        0.0     16.075
   454     1   20.4785        0.0   16.87875
   455     1   20.4785     2.9255    17.6825
   456     1    23.404     2.9255   18.48625
   457     1    17.553      5.851        0.0
   458     1   20.4785      5.851    0.80375
   459     1   20.4785     8.7765     1.6075
   460     1    23.404     8.7765    2.41125
   461     1    17.553      5.851      3.215
   462     1   20.4785      5.851    4.01875
   463     1   20.4785     8.7765     4.8225
   464     1    23.404     8.7765    5.62625
   465     1    17.553      5.851       6.43
   466     1   20.4785      5.851    7.23375
   467     1   20.4785     8.7765     8.0375
   468     1    23.404     8.7765    8.84125
   469     1    17.553      5.851      9.645
   470     1   20.4785      5.851   10.44875
   471     1   20.4785     8.7765    11.2525
   472     1    23.404     8.7765   12.05625
   473     1    17.553      5.851      12.86
   474     1   20.4785      5.851   13.66375
   475     1   20.4785     8.7765    14.4675
   476     1    23.404     8.7765   15.27125
   477     1    17.553      5.851     16.075
   478     1   20.4785      5.851   16.87875
   479     1   20.4785     8.7765    17.6825
   480     1    23.404     8.7765   18.48625
   481     1    17.553     11.702        0.0
   482     1   20.4785     11.702    0.80375
   483     1   20.4785    14.6275     1.6075
   484     1    23.404    14.6275    2.41125
   485     1    17.553     11.702      3.215
   486     1   20.4785     11.702    4.01875
   487     1   20.4785    14.6275     4.8225
   488     1    23.404    14.6275    5.62625
   489     1    17.553     11.702       6.43
   490     1   20.4785     11.702    7.23375
   491     1   20.4785    14.6275     8.0375
   492     1    23.404    14.6275    8.84125
   493     1    17.553     11.702      9.645
   494     1   20.4785     11.702   10.44875
   495     1   20.4785    14.6275    11.2525
   496     1    23.404    14.6275   12.05625
   497     1    17.553     11.702      12.86
   498     1   20.4785     11.702   13.66375
   499     1   20.4785    14.6275    14.4675
   500     1    23.404    14.6275   15.27125
   501     1    17.553     11.702     16.075
   502     1   20.4785     11.702   16.87875
   503     1   20.4785    14.6275    17.6825
   504     1    23.404    14.6275   18.48625
   505     1    17.553     17.553        0.0
   506     1   20.4785     17.553    0.80375
   507     1   20.4785    20.4785     1.6075
   508     1    23.404    20.4785    2.41125
   509     1    17.553     17.553      3.215
   510     1   20.4785     17.553    4.01875
   511     1   20.4785    20.4785     4.8225
   512     1    23.404    20.4785    5.62625
   513     1    17.553     17.553       6.43
   514     1   20.4785     17.553    7.23375
   515     1   20.4785    20.4785     8.0375
   516     1    23.404    20.4785    8.84125
   517     1    17.553     17.553      9.645
   518     1   20.4785     17.553   10.44875
   519     1   20.4785    20.4785    11.2525
   520     1    23.404    20.4785   12.05625
   521     1    17.553     17.553      12.86
   522     1   20.4785     17.553   13.66375
   523     1   20.4785    20.4785    14.4675
   524     1    23.404    20.4785   15.27125
   525     1    17.553     17.553     16.075
   526     1   20.4785     17.553   16.87875
   527     1   20.4785    20.4785    17.6825
   528     1    23.404    20.4785   18.48625
   529     1    17.553     23.404        0.0
   530     1   20.4785     23.404    0.80375
   531     1   20.4785    26.3295     1.6075
   532     1    23.404    26.3295    2.41125
   533     1    17.553     23.404      3.215
   534     1   20.4785     23.404    4.01875
   535     1   20.4785    26.3295     4.8225
   536     1    23.404    26.3295    5.62625
   537     1    17.553     23.404       6.43
   538     1   20.4785     23.404    7.23375
   539     1   20.4785    26.3295     8.0375
   540     1    23.404    26.3295    8.84125
   541     1    17.553     23.404      9.645
   542     1   20.4785     23.404   10.44875
   543     1   20.4785    26.3295    11.2525
   544     1    23.404    26.3295   12.05625
   545     1    17.553     23.404      12.86
   546     1   20.4785     23.404   13.66375
   547     1   20.4785    26.3295    14.4675
   548     1    23.404    26.3295   15.27125
   549     1    17.553     23.404     16.075
   550     1   20.4785     23.404   16.87875
   551     1   20.4785    26.3295    17.6825
   552     1    23.404    26.3295   18.48625
   553     1    17.553     29.255        0.0
   554     1   20.4785     29.255    0.80375
   555     1   20.4785    32.1805     1.6075
   556     1    23.404    32.1805    2.41125
   557     1    17.553     29.255      3.215
   558     1   20.4785     29.255    4.01875
   559     1   20.4785    32.1805     4.8225
   560     1    23.404    32.1805    5.62625
   561     1    17.553     29.255       6.43
   562     1   20.4785     29.255    7.23375
   563     1   20.4785    32.1805     8.0375
   564     1    23.404    32.1805    8.84125
   565     1    17.553     29.255      9.645
   566     1   20.4785     29.255   10.44875
   567     1   20.4785    32.1805    11.2525
   568     1    23.404    32.1805   12.05625
   569     1    17.553     29.255      12.86
   570     1   20.4785     29.255   13.66375
   571     1   20.4785    32.1805    14.4675
   572     1    23.404    32.1805   15.27125
   573     1    17.553     29.255     16.075
   574     1   20.4785     29.255   16.87875
   575     1   20.4785    32.1805    17.6825
   576     1    23.404    32.1805   18.48625
   577     1    23.404        0.0        0.0
   578     1   26.3295        0.0    0.80375
   579     1   26.3295     2.9255     1.6075
   580     1    29.255     2.9255    2.41125
   581     1    23.404        0.0      3.215
   582     1   26.3295        0.0    4.01875
   583     1   26.3295     2.9255     4.8225
   584     1    29.255     2.9255    5.62625
   585     1    23.404        0.0       6.43
   586     1   26.3295        0.0    7.23375
   587     1   26.3295     2.9255     8.0375
   588     1    29.255     2.9255    8.84125
   589     1    23.404        0.0      9.645
   590     1   26.3295        0.0   10.44875
   591     1   26.3295     2.9255    11.2525
   592     1    29.255     2.9255   12.05625
   593     1    23.404        0.0      12.86
   594     1   26.3295        0.0   13.66375
   595     1   26.3295     2.9255    14.4675
   596     1    29.255     2.9255   15.27125
   597     1    23.404        0.0     16.075
   598     1   26.3295        0.0   16.87875
   599     1   26.3295     2.9255    17.6825
   600     1    29.255     2.9255   18.48625
   601     1    23.404      5.851        0.0
   602     1   26.3295      5.851    0.80375
   603     1   26.3295     8.7765     1.6075
   604     1    29.255     8.7765    2.41125
   605     1    23.404      5.851      3.215
   606     1   26.3295      5.851    4.01875
   607     1   26.3295     8.7765     4.8225
   608     1    29.255     8.7765    5.62625
   609     1    23.404      5.851       6.43
   610     1   26.3295      5.851    7.23375
   611     1   26.3295     8.7765     8.0375
   612     1    29.255     8.7765    8.84125
   613     1    23.404      5.851      9.645
   614     1   26.3295      5.851   10.44875
   615     1   26.3295     8.7765    11.2525
   616     1    29.255     8.7765   12.05625
   617     1    23.404      5.851      12.86
   618     1   26.3295      5.851   13.66375
   619     1   26.3295     8.7765    14.4675
   620     1    29.255     8.7765   15.27125
   621     1    23.404      5.851     16.075
   622     1   26.3295      5.851   16.87875
   623     1   26.3295     8.7765    17.6825
   624     1    29.255     8.7765   18.48625
   625     1    23.404     11.702        0.0
   626     1   26.3295     11.702    0.80375
   627     1   26.3295    14.6275     1.6075
   628     1    29.255    14.6275    2.41125
   629     1    23.404     11.702      3.215
   630     1   26.3295     11.702    4.01875
   631     1   26.3295    14.6275     4.8225
   632     1    29.255    14.6275    5.62625
   633     1    23.404     11.702       6.43
   634     1   26.3295     11.702    7.23375
   635     1   26.3295    14.6275     8.0375
   636     1    29.255    14.6275    8.84125
   637     1    23.404     11.702      9.645
   638     1   26.3295     11.702   10.44875
   639     1   26.3295    14.6275    11.2525
   640     1    29.255    14.6275   12.05625
   641     1    23.404     11.702      12.86
   642     1   26.3295     11.702   13.66375
   643     1   26.3295    14.6275    14.4675
   644     1    29.255    14.6275   15.27125
   645     1    23.404     11.702     16.075
   646     1   26.3295     11.702   16.87875
   647     1   26.3295    14.6275    17.6825
   648     1    29.255    14.6275   18.48625
   649     1    23.404     17.553        0.0
   650     1   26.3295     17.553    0.80375
   651     1   26.3295    20.4785     1.6075
   652     1    29.255    20.4785    2.41125
   653     1    23.404     17.553      3.215
   654     1   26.3295     17.553    4.01875
   655     1   26.3295    20.4785     4.8225
   656     1    29.255    20.4785    5.62625
   657     1    23.404     17.553       6.43
   658     1   26.3295     17.553    7.23375
   659     1   26.3295    20.4785     8.0375
   660     1    29.255    20.4785    8.84125
   661     1    23.404     17.553      9.645