
      2744 atoms
         0 bonds
         0 angles
         0 dihedrals
         0 impropers

         1 atom types
         0 bond types
         0 angle types
         0 dihedral types

         0      46.9 xlo xhi
         0      46.9 ylo yhi
         0      46.9 zlo zhi

    Atoms
    
     1     1       0.0        0.0        0.0
     2     1     1.675      1.675      1.675
     3     1      3.35        0.0       3.35
     4     1     5.025      1.675      5.025
     5     1      3.35       3.35        0.0
     6     1     5.025      5.025      1.675
     7     1       0.0       3.35       3.35
     8     1     1.675      5.025      5.025
     9     1       0.0        0.0        6.7
    10     1     1.675      1.675      8.375
    11     1      3.35        0.0      10.05
    12     1     5.025      1.675     11.725
    13     1      3.35       3.35        6.7
    14     1     5.025      5.025      8.375
    15     1       0.0       3.35      10.05
    16     1     1.675      5.025     11.725
    17     1       0.0        0.0       13.4
    18     1     1.675      1.675     15.075
    19     1      3.35        0.0      16.75
    20     1     5.025      1.675     18.425
    21     1      3.35       3.35       13.4
    22     1     5.025      5.025     15.075
    23     1       0.0       3.35      16.75
    24     1     1.675      5.025     18.425
    25     1       0.0        0.0       20.1
    26     1     1.675      1.675     21.775
    27     1      3.35        0.0      23.45
    28     1     5.025      1.675     25.125
    29     1      3.35       3.35       20.1
    30     1     5.025      5.025     21.775
    31     1       0.0       3.35      23.45
    32     1     1.675      5.025     25.125
    33     1       0.0        0.0       26.8
    34     1     1.675      1.675     28.475
    35     1      3.35        0.0      30.15
    36     1     5.025      1.675     31.825
    37     1      3.35       3.35       26.8
    38     1     5.025      5.025     28.475
    39     1       0.0       3.35      30.15
    40     1     1.675      5.025     31.825
    41     1       0.0        0.0       33.5
    42     1     1.675      1.675     35.175
    43     1      3.35        0.0      36.85
    44     1     5.025      1.675     38.525
    45     1      3.35       3.35       33.5
    46     1     5.025      5.025     35.175
    47     1       0.0       3.35      36.85
    48     1     1.675      5.025     38.525
    49     1       0.0        0.0       40.2
    50     1     1.675      1.675     41.875
    51     1      3.35        0.0      43.55
    52     1     5.025      1.675     45.225
    53     1      3.35       3.35       40.2
    54     1     5.025      5.025     41.875
    55     1       0.0       3.35      43.55
    56     1     1.675      5.025     45.225
    57     1       0.0        6.7        0.0
    58     1     1.675      8.375      1.675
    59     1      3.35        6.7       3.35
    60     1     5.025      8.375      5.025
    61     1      3.35      10.05        0.0
    62     1     5.025     11.725      1.675
    63     1       0.0      10.05       3.35
    64     1     1.675     11.725      5.025
    65     1       0.0        6.7        6.7
    66     1     1.675      8.375      8.375
    67     1      3.35        6.7      10.05
    68     1     5.025      8.375     11.725
    69     1      3.35      10.05        6.7
    70     1     5.025     11.725      8.375
    71     1       0.0      10.05      10.05
    72     1     1.675     11.725     11.725
    73     1       0.0        6.7       13.4
    74     1     1.675      8.375     15.075
    75     1      3.35        6.7      16.75
    76     1     5.025      8.375     18.425
    77     1      3.35      10.05       13.4
    78     1     5.025     11.725     15.075
    79     1       0.0      10.05      16.75
    80     1     1.675     11.725     18.425
    81     1       0.0        6.7       20.1
    82     1     1.675      8.375     21.775
    83     1      3.35        6.7      23.45
    84     1     5.025      8.375     25.125
    85     1      3.35      10.05       20.1
    86     1     5.025     11.725     21.775
    87     1       0.0      10.05      23.45
    88     1     1.675     11.725     25.125
    89     1       0.0        6.7       26.8
    90     1     1.675      8.375     28.475
    91     1      3.35        6.7      30.15
    92     1     5.025      8.375     31.825
    93     1      3.35      10.05       26.8
    94     1     5.025     11.725     28.475
    95     1       0.0      10.05      30.15
    96     1     1.675     11.725     31.825
    97     1       0.0        6.7       33.5
    98     1     1.675      8.375     35.175
    99     1      3.35        6.7      36.85
   100     1     5.025      8.375     38.525
   101     1      3.35      10.05       33.5
   102     1     5.025     11.725     35.175
   103     1       0.0      10.05      36.85
   104     1     1.675     11.725     38.525
   105     1       0.0        6.7       40.2
   106     1     1.675      8.375     41.875
   107     1      3.35        6.7      43.55
   108     1     5.025      8.375     45.225
   109     1      3.35      10.05       40.2
   110     1     5.025     11.725     41.875
   111     1       0.0      10.05      43.55
   112     1     1.675     11.725     45.225
   113     1       0.0       13.4        0.0
   114     1     1.675     15.075      1.675
   115     1      3.35       13.4       3.35
   116     1     5.025     15.075      5.025
   117     1      3.35      16.75        0.0
   118     1     5.025     18.425      1.675
   119     1       0.0      16.75       3.35
   120     1     1.675     18.425      5.025
   121     1       0.0       13.4        6.7
   122     1     1.675     15.075      8.375
   123     1      3.35       13.4      10.05
   124     1     5.025     15.075     11.725
   125     1      3.35      16.75        6.7
   126     1     5.025     18.425      8.375
   127     1       0.0      16.75      10.05
   128     1     1.675     18.425     11.725
   129     1       0.0       13.4       13.4
   130     1     1.675     15.075     15.075
   131     1      3.35       13.4      16.75
   132     1     5.025     15.075     18.425
   133     1      3.35      16.75       13.4
   134     1     5.025     18.425     15.075
   135     1       0.0      16.75      16.75
   136     1     1.675     18.425     18.425
   137     1       0.0       13.4       20.1
   138     1     1.675     15.075     21.775
   139     1      3.35       13.4      23.45
   140     1     5.025     15.075     25.125
   141     1      3.35      16.75       20.1
   142     1     5.025     18.425     21.775
   143     1       0.0      16.75      23.45
   144     1     1.675     18.425     25.125
   145     1       0.0       13.4       26.8
   146     1     1.675     15.075     28.475
   147     1      3.35       13.4      30.15
   148     1     5.025     15.075     31.825
   149     1      3.35      16.75       26.8
   150     1     5.025     18.425     28.475
   151     1       0.0      16.75      30.15
   152     1     1.675     18.425     31.825
   153     1       0.0       13.4       33.5
   154     1     1.675     15.075     35.175
   155     1      3.35       13.4      36.85
   156     1     5.025     15.075     38.525
   157     1      3.35      16.75       33.5
   158     1     5.025     18.425     35.175
   159     1       0.0      16.75      36.85
   160     1     1.675     18.425     38.525
   161     1       0.0       13.4       40.2
   162     1     1.675     15.075     41.875
   163     1      3.35       13.4      43.55
   164     1     5.025     15.075     45.225
   165     1      3.35      16.75       40.2
   166     1     5.025     18.425     41.875
   167     1       0.0      16.75      43.55
   168     1     1.675     18.425     45.225
   169     1       0.0       20.1        0.0
   170     1     1.675     21.775      1.675
   171     1      3.35       20.1       3.35
   172     1     5.025     21.775      5.025
   173     1      3.35      23.45        0.0
   174     1     5.025     25.125      1.675
   175     1       0.0      23.45       3.35
   176     1     1.675     25.125      5.025
   177     1       0.0       20.1        6.7
   178     1     1.675     21.775      8.375
   179     1      3.35       20.1      10.05
   180     1     5.025     21.775     11.725
   181     1      3.35      23.45        6.7
   182     1     5.025     25.125      8.375
   183     1       0.0      23.45      10.05
   184     1     1.675     25.125     11.725
   185     1       0.0       20.1       13.4
   186     1     1.675     21.775     15.075
   187     1      3.35       20.1      16.75
   188     1     5.025     21.775     18.425
   189     1      3.35      23.45       13.4
   190     1     5.025     25.125     15.075
   191     1       0.0      23.45      16.75
   192     1     1.675     25.125     18.425
   193     1       0.0       20.1       20.1
   194     1     1.675     21.775     21.775
   195     1      3.35       20.1      23.45
   196     1     5.025     21.775     25.125
   197     1      3.35      23.45       20.1
   198     1     5.025     25.125     21.775
   199     1       0.0      23.45      23.45
   200     1     1.675     25.125     25.125
   201     1       0.0       20.1       26.8
   202     1     1.675     21.775     28.475
   203     1      3.35       20.1      30.15
   204     1     5.025     21.775     31.825
   205     1      3.35      23.45       26.8
   206     1     5.025     25.125     28.475
   207     1       0.0      23.45      30.15
   208     1     1.675     25.125     31.825
   209     1       0.0       20.1       33.5
   210     1     1.675     21.775     35.175
   211     1      3.35       20.1      36.85
   212     1     5.025     21.775     38.525
   213     1      3.35      23.45       33.5
   214     1     5.025     25.125     35.175
   215     1       0.0      23.45      36.85
   216     1     1.675     25.125     38.525
   217     1       0.0       20.1       40.2
   218     1     1.675     21.775     41.875
   219     1      3.35       20.1      43.55
   220     1     5.025     21.775     45.225
   221     1      3.35      23.45       40.2
   222     1     5.025     25.125     41.875
   223     1       0.0      23.45      43.55
   224     1     1.675     25.125     45.225
   225     1       0.0       26.8        0.0
   226     1     1.675     28.475      1.675
   227     1      3.35       26.8       3.35
   228     1     5.025     28.475      5.025
   229     1      3.35      30.15        0.0
   230     1     5.025     31.825      1.675
   231     1       0.0      30.15       3.35
   232     1     1.675     31.825      5.025
   233     1       0.0       26.8        6.7
   234     1     1.675     28.475      8.375
   235     1      3.35       26.8      10.05
   236     1     5.025     28.475     11.725
   237     1      3.35      30.15        6.7
   238     1     5.025     31.825      8.375
   239     1       0.0      30.15      10.05
   240     1     1.675     31.825     11.725
   241     1       0.0       26.8       13.4
   242     1     1.675     28.475     15.075
   243     1      3.35       26.8      16.75
   244     1     5.025     28.475     18.425
   245     1      3.35      30.15       13.4
   246     1     5.025     31.825     15.075
   247     1       0.0      30.15      16.75
   248     1     1.675     31.825     18.425
   249     1       0.0       26.8       20.1
   250     1     1.675     28.475     21.775
   251     1      3.35       26.8      23.45
   252     1     5.025     28.475     25.125
   253     1      3.35      30.15       20.1
   254     1     5.025     31.825     21.775
   255     1       0.0      30.15      23.45
   256     1     1.675     31.825     25.125
   257     1       0.0       26.8       26.8
   258     1     1.675     28.475     28.475
   259     1      3.35       26.8      30.15
   260     1     5.025     28.475     31.825
   261     1      3.35      30.15       26.8
   262     1     5.025     31.825     28.475
   263     1       0.0      30.15      30.15
   264     1     1.675     31.825     31.825
   265     1       0.0       26.8       33.5
   266     1     1.675     28.475     35.175
   267     1      3.35       26.8      36.85
   268     1     5.025     28.475     38.525
   269     1      3.35      30.15       33.5
   270     1     5.025     31.825     35.175
   271     1       0.0      30.15      36.85
   272     1     1.675     31.825     38.525
   273     1       0.0       26.8       40.2
   274     1     1.675     28.475     41.875
   275     1      3.35       26.8      43.55
   276     1     5.025     28.475     45.225
   277     1      3.35      30.15       40.2
   278     1     5.025     31.825     41.875
   279     1       0.0      30.15      43.55
   280     1     1.675     31.825     45.225
   281     1       0.0       33.5        0.0
   282     1     1.675     35.175      1.675
   283     1      3.35       33.5       3.35
   284     1     5.025     35.175      5.025
   285     1      3.35      36.85        0.0
   286     1     5.025     38.525      1.675
   287     1       0.0      36.85       3.35
   288     1     1.675     38.525      5.025
   289     1       0.0       33.5        6.7
   290     1     1.675     35.175      8.375
   291     1      3.35       33.5      10.05
   292     1     5.025     35.175     11.725
   293     1      3.35      36.85        6.7
   294     1     5.025     38.525      8.375
   295     1       0.0      36.85      10.05
   296     1     1.675     38.525     11.725
   297     1       0.0       33.5       13.4
   298     1     1.675     35.175     15.075
   299     1      3.35       33.5      16.75
   300     1     5.025     35.175     18.425
   301     1      3.35      36.85       13.4
   302     1     5.025     38.525     15.075
   303     1       0.0      36.85      16.75
   304     1     1.675     38.525     18.425
   305     1       0.0       33.5       20.1
   306     1     1.675     35.175     21.775
   307     1      3.35       33.5      23.45
   308     1     5.025     35.175     25.125
   309     1      3.35      36.85       20.1
   310     1     5.025     38.525     21.775
   311     1       0.0      36.85      23.45
   312     1     1.675     38.525     25.125
   313     1       0.0       33.5       26.8
   314     1     1.675     35.175     28.475
   315     1      3.35       33.5      30.15
   316     1     5.025     35.175     31.825
   317     1      3.35      36.85       26.8
   318     1     5.025     38.525     28.475
   319     1       0.0      36.85      30.15
   320     1     1.675     38.525     31.825
   321     1       0.0       33.5       33.5
   322     1     1.675     35.175     35.175
   323     1      3.35       33.5      36.85
   324     1     5.025     35.175     38.525
   325     1      3.35      36.85       33.5
   326     1     5.025     38.525     35.175
   327     1       0.0      36.85      36.85
   328     1     1.675     38.525     38.525
   329     1       0.0       33.5       40.2
   330     1     1.675     35.175     41.875
   331     1      3.35       33.5      43.55
   332     1     5.025     35.175     45.225
   333     1      3.35      36.85       40.2
   334     1     5.025     38.525     41.875
   335     1       0.0      36.85      43.55
   336     1     1.675     38.525     45.225
   337     1       0.0       40.2        0.0
   338     1     1.675     41.875      1.675
   339     1      3.35       40.2       3.35
   340     1     5.025     41.875      5.025
   341     1      3.35      43.55        0.0
   342     1     5.025     45.225      1.675
   343     1       0.0      43.55       3.35
   344     1     1.675     45.225      5.025
   345     1       0.0       40.2        6.7
   346     1     1.675     41.875      8.375
   347     1      3.35       40.2      10.05
   348     1     5.025     41.875     11.725
   349     1      3.35      43.55        6.7
   350     1     5.025     45.225      8.375
   351     1       0.0      43.55      10.05
   352     1     1.675     45.225     11.725
   353     1       0.0       40.2       13.4
   354     1     1.675     41.875     15.075
   355     1      3.35       40.2      16.75
   356     1     5.025     41.875     18.425
   357     1      3.35      43.55       13.4
   358     1     5.025     45.225     15.075
   359     1       0.0      43.55      16.75
   360     1     1.675     45.225     18.425
   361     1       0.0       40.2       20.1
   362     1     1.675     41.875     21.775
   363     1      3.35       40.2      23.45
   364     1     5.025     41.875     25.125
   365     1      3.35      43.55       20.1
   366     1     5.025     45.225     21.775
   367     1       0.0      43.55      23.45
   368     1     1.675     45.225     25.125
   369     1       0.0       40.2       26.8
   370     1     1.675     41.875     28.475
   371     1      3.35       40.2      30.15
   372     1     5.025     41.875     31.825
   373     1      3.35      43.55       26.8
   374     1     5.025     45.225     28.475
   375     1       0.0      43.55      30.15
   376     1     1.675     45.225     31.825
   377     1       0.0       40.2       33.5
   378     1     1.675     41.875     35.175
   379     1      3.35       40.2      36.85
   380     1     5.025     41.875     38.525
   381     1      3.35      43.55       33.5
   382     1     5.025     45.225     35.175
   383     1       0.0      43.55      36.85
   384     1     1.675     45.225     38.525
   385     1       0.0       40.2       40.2
   386     1     1.675     41.875     41.875
   387     1      3.35       40.2      43.55
   388     1     5.025     41.875     45.225
   389     1      3.35      43.55       40.2
   390     1     5.025     45.225     41.875
   391     1       0.0      43.55      43.55
   392     1     1.675     45.225     45.225
   393     1       6.7        0.0        0.0
   394     1     8.375      1.675      1.675
   395     1     10.05        0.0       3.35
   396     1    11.725      1.675      5.025
   397     1     10.05       3.35        0.0
   398     1    11.725      5.025      1.675
   399     1       6.7       3.35       3.35
   400     1     8.375      5.025      5.025
   401     1       6.7        0.0        6.7
   402     1     8.375      1.675      8.375
   403     1     10.05        0.0      10.05
   404     1    11.725      1.675     11.725
   405     1     10.05       3.35        6.7
   406     1    11.725      5.025      8.375
   407     1       6.7       3.35      10.05
   408     1     8.375      5.025     11.725
   409     1       6.7        0.0       13.4
   410     1     8.375      1.675     15.075
   411     1     10.05        0.0      16.75
   412     1    11.725      1.675     18.425
   413     1     10.05       3.35       13.4
   414     1    11.725      5.025     15.075
   415     1       6.7       3.35      16.75
   416     1     8.375      5.025     18.425
   417     1       6.7        0.0       20.1
   418     1     8.375      1.675     21.775
   419     1     10.05        0.0      23.45
   420     1    11.725      1.675     25.125
   421     1     10.05       3.35       20.1
   422     1    11.725      5.025     21.775
   423     1       6.7       3.35      23.45
   424     1     8.375      5.025     25.125
   425     1       6.7        0.0       26.8
   426     1     8.375      1.675     28.475
   427     1     10.05        0.0      30.15
   428     1    11.725      1.675     31.825
   429     1     10.05       3.35       26.8
   430     1    11.725      5.025     28.475
   431     1       6.7       3.35      30.15
   432     1     8.375      5.025     31.825
   433     1       6.7        0.0       33.5
   434     1     8.375      1.675     35.175
   435     1     10.05        0.0      36.85
   436     1    11.725      1.675     38.525
   437     1     10.05       3.35       33.5
   438     1    11.725      5.025     35.175
   439     1       6.7       3.35      36.85
   440     1     8.375      5.025     38.525
   441     1       6.7        0.0       40.2
   442     1     8.375      1.675     41.875
   443     1     10.05        0.0      43.55
   444     1    11.725      1.675     45.225
   445     1     10.05       3.35       40.2
   446     1    11.725      5.025     41.875
   447     1       6.7       3.35      43.55
   448     1     8.375      5.025     45.225
   449     1       6.7        6.7        0.0
   450     1     8.375      8.375      1.675
   451     1     10.05        6.7       3.35
   452     1    11.725      8.375      5.025
   453     1     10.05      10.05        0.0
   454     1    11.725     11.725      1.675
   455     1       6.7      10.05       3.35
   456     1     8.375     11.725      5.025
   457     1       6.7        6.7        6.7
   458     1     8.375      8.375      8.375
   459     1     10.05        6.7      10.05
   460     1    11.725      8.375     11.725
   461     1     10.05      10.05        6.7
   462     1    11.725     11.725      8.375
   463     1       6.7      10.05      10.05
   464     1     8.375     11.725     11.725
   465     1       6.7        6.7       13.4
   466     1     8.375      8.375     15.075
   467     1     10.05        6.7      16.75
   468     1    11.725      8.375     18.425
   469     1     10.05      10.05       13.4
   470     1    11.725     11.725     15.075
   471     1       6.7      10.05      16.75
   472     1     8.375     11.725     18.425
   473     1       6.7        6.7       20.1
   474     1     8.375      8.375     21.775
   475     1     10.05        6.7      23.45
   476     1    11.725      8.375     25.125
   477     1     10.05      10.05       20.1
   478     1    11.725     11.725     21.775
   479     1       6.7      10.05      23.45
   480     1     8.375     11.725     25.125
   481     1       6.7        6.7       26.8
   482     1     8.375      8.375     28.475
   483     1     10.05        6.7      30.15
   484     1    11.725      8.375     31.825
   485     1     10.05      10.05       26.8
   486     1    11.725     11.725     28.475
   487     1       6.7      10.05      30.15
   488     1     8.375     11.725     31.825
   489     1       6.7        6.7       33.5
   490     1     8.375      8.375     35.175
   491     1     10.05        6.7      36.85
   492     1    11.725      8.375     38.525
   493     1     10.05      10.05       33.5
   494     1    11.725     11.725     35.175
   495     1       6.7      10.05      36.85
   496     1     8.375     11.725     38.525
   497     1       6.7        6.7       40.2
   498     1     8.375      8.375     41.875
   499     1     10.05        6.7      43.55
   500     1    11.725      8.375     45.225
   501     1     10.05      10.05       40.2
   502     1    11.725     11.725     41.875
   503     1       6.7      10.05      43.55
   504     1     8.375     11.725     45.225
   505     1       6.7       13.4        0.0
   506     1     8.375     15.075      1.675
   507     1     10.05       13.4       3.35
   508     1    11.725     15.075      5.025
   509     1     10.05      16.75        0.0
   510     1    11.725     18.425      1.675
   511     1       6.7      16.75       3.35
   512     1     8.375     18.425      5.025
   513     1       6.7       13.4        6.7
   514     1     8.375     15.075      8.375
   515     1     10.05       13.4      10.05
   516     1    11.725     15.075     11.725
   517     1     10.05      16.75        6.7
   518     1    11.725     18.425      8.375
   519     1       6.7      16.75      10.05
   520     1     8.375     18.425     11.725
   521     1       6.7       13.4       13.4
   522     1     8.375     15.075     15.075
   523     1     10.05       13.4      16.75
   524     1    11.725     15.075     18.425
   525     1     10.05      16.75       13.4
   526     1    11.725     18.425     15.075
   527     1       6.7      16.75      16.75
   528     1     8.375     18.425     18.425
   529     1       6.7       13.4       20.1
   530     1     8.375     15.075     21.775
   531     1     10.05       13.4      23.45
   532     1    11.725     15.075     25.125
   533     1     10.05      16.75       20.1
   534     1    11.725     18.425     21.775
   535     1       6.7      16.75      23.45
   536     1     8.375     18.425     25.125
   537     1       6.7       13.4       26.8
   538     1     8.375     15.075     28.475
   539     1     10.05       13.4      30.15
   540     1    11.725     15.075     31.825
   541     1     10.05      16.75       26.8
   542     1    11.725     18.425     28.475
   543     1       6.7      16.75      30.15
   544     1     8.375     18.425     31.825
   545     1       6.7       13.4       33.5
   546     1     8.375     15.075     35.175
   547     1     10.05       13.4      36.85
   548     1    11.725     15.075     38.525
   549     1     10.05      16.75       33.5
   550     1    11.725     18.425     35.175
   551     1       6.7      16.75      36.85
   552     1     8.375     18.425     38.525
   553     1       6.7       13.4       40.2
   554     1     8.375     15.075     41.875
   555     1     10.05       13.4      43.55
   556     1    11.725     15.075     45.225
   557     1     10.05      16.75       40.2
   558     1    11.725     18.425     41.875
   559     1       6.7      16.75      43.55
   560     1     8.375     18.425     45.225
   561     1       6.7       20.1        0.0
   562     1     8.375     21.775      1.675
   563     1     10.05       20.1       3.35
   564     1    11.725     21.775      5.025
   565     1     10.05      23.45        0.0
   566     1    11.725     25.125      1.675
   567     1       6.7      23.45       3.35
   568     1     8.375     25.125      5.025
   569     1       6.7       20.1        6.7
   570     1     8.375     21.775      8.375
   571     1     10.05       20.1      10.05
   572     1    11.725     21.775     11.725
   573     1     10.05      23.45        6.7
   574     1    11.725     25.125      8.375
   575     1       6.7      23.45      10.05
   576     1     8.375     25.125     11.725
   577     1       6.7       20.1       13.4
   578     1     8.375     21.775     15.075
   579     1     10.05       20.1      16.75
   580     1    11.725     21.775     18.425
   581     1     10.05      23.45       13.4
   582     1    11.725     25.125     15.075
   583     1       6.7      23.45      16.75
   584     1     8.375     25.125     18.425
   585     1       6.7       20.1       20.1
   586     1     8.375     21.775     21.775
   587     1     10.05       20.1      23.45
   588     1    11.725     21.775     25.125
   589     1     10.05      23.45       20.1
   590     1    11.725     25.125     21.775
   591     1       6.7      23.45      23.45
   592     1     8.375     25.125     25.125
   593     1       6.7       20.1       26.8
   594     1     8.375     21.775     28.475
   595     1     10.05       20.1      30.15
   596     1    11.725     21.775     31.825
   597     1     10.05      23.45       26.8
   598     1    11.725     25.125     28.475
   599     1       6.7      23.45      30.15
   600     1     8.375     25.125     31.825
   601     1       6.7       20.1       33.5
   602     1     8.375     21.775     35.175
   603     1     10.05       20.1      36.85
   604     1    11.725     21.775     38.525
   605     1     10.05      23.45       33.5
   606     1    11.725     25.125     35.175
   607     1       6.7      23.45      36.85
   608     1     8.375     25.125     38.525
   609     1       6.7       20.1       40.2
   610     1     8.375     21.775     41.875
   611     1     10.05       20.1      43.55
   612     1    11.725     21.775     45.225
   613     1     10.05      23.45       40.2
   614     1    11.725     25.125     41.875
   615     1       6.7      23.45      43.55
   616     1     8.375     25.125     45.225
   617     1       6.7       26.8        0.0
   618     1     8.375     28.475      1.675
   619     1     10.05       26.8       3.35
   620     1    11.725     28.475      5.025
   621     1     10.05      30.15        0.0
   622     1    11.725     31.825      1.675
   623     1       6.7      30.15       3.35
   624     1     8.375     31.825      5.025
   625     1       6.7       26.8        6.7
   626     1     8.375     28.475      8.375
   627     1     10.05       26.8      10.05
   628     1    11.725     28.475     11.725
   629     1     10.05      30.15        6.7
   630     1    11.725     31.825      8.375
   631     1       6.7      30.15      10.05
   632     1     8.375     31.825     11.725
   633     1       6.7       26.8       13.4
   634     1     8.375     28.475     15.075
   635     1     10.05       26.8      16.75
   636     1    11.725     28.475     18.425
   637     1     10.05      30.15       13.4
   638     1    11.725     31.825     15.075
   639     1       6.7      30.15      16.75
   640     1     8.375     31.825     18.425
   641     1       6.7       26.8       20.1
   642     1     8.375     28.475     21.775
   643     1     10.05       26.8      23.45
   644     1    11.725     28.475     25.125
   645     1     10.05      30.15       20.1
   646     1    11.725     31.825     21.775
   647     1       6.7      30.15      23.45
   648     1     8.375     31.825     25.125
   649     1       6.7       26.8       26.8
   650     1     8.375     28.475     28.475
   651     1     10.05       26.8      30.15
   652     1    11.725     28.475     31.825
   653     1     10.05      30.15       26.8
   654     1    11.725     31.825     28.475
   655     1       6.7      30.15      30.15
   656     1     8.375     31.825     31.825
   657     1       6.7       26.8       33.5
   658     1     8.375     28.475     35.175
   659     1     10.05       26.8      36.85
   660     1    11.725     28.475     38.525