
      1000 atoms
         0 bonds
         0 angles
         0 dihedrals
         0 impropers

         1 atom types
         0 bond types
         0 angle types
         0 dihedral types

         0      33.5 xlo xhi
         0      33.5 ylo yhi
         0      33.5 zlo zhi

    Atoms
    
     1     1       0.0        0.0        0.0
     2     1     1.675      1.675      1.675
     3     1      3.35        0.0       3.35
     4     1     5.025      1.675      5.025
     5     1      3.35       3.35        0.0
     6     1     5.025      5.025      1.675
     7     1       0.0       3.35       3.35
     8     1     1.675      5.025      5.025
     9     1       0.0        0.0        6.7
    10     1     1.675      1.675      8.375
    11     1      3.35        0.0      10.05
    12     1     5.025      1.675     11.725
    13     1      3.35       3.35        6.7
    14     1     5.025      5.025      8.375
    15     1       0.0       3.35      10.05
    16     1     1.675      5.025     11.725
    17     1       0.0        0.0       13.4
    18     1     1.675      1.675     15.075
    19     1      3.35        0.0      16.75
    20     1     5.025      1.675     18.425
    21     1      3.35       3.35       13.4
    22     1     5.025      5.025     15.075
    23     1       0.0       3.35      16.75
    24     1     1.675      5.025     18.425
    25     1       0.0        0.0       20.1
    26     1     1.675      1.675     21.775
    27     1      3.35        0.0      23.45
    28     1     5.025      1.675     25.125
    29     1      3.35       3.35       20.1
    30     1     5.025      5.025     21.775
    31     1       0.0       3.35      23.45
    32     1     1.675      5.025     25.125
    33     1       0.0        0.0       26.8
    34     1     1.675      1.675     28.475
    35     1      3.35        0.0      30.15
    36     1     5.025      1.675     31.825
    37     1      3.35       3.35       26.8
    38     1     5.025      5.025     28.475
    39     1       0.0       3.35      30.15
    40     1     1.675      5.025     31.825
    41     1       0.0        6.7        0.0
    42     1     1.675      8.375      1.675
    43     1      3.35        6.7       3.35
    44     1     5.025      8.375      5.025
    45     1      3.35      10.05        0.0
    46     1     5.025     11.725      1.675
    47     1       0.0      10.05       3.35
    48     1     1.675     11.725      5.025
    49     1       0.0        6.7        6.7
    50     1     1.675      8.375      8.375
    51     1      3.35        6.7      10.05
    52     1     5.025      8.375     11.725
    53     1      3.35      10.05        6.7
    54     1     5.025     11.725      8.375
    55     1       0.0      10.05      10.05
    56     1     1.675     11.725     11.725
    57     1       0.0        6.7       13.4
    58     1     1.675      8.375     15.075
    59     1      3.35        6.7      16.75
    60     1     5.025      8.375     18.425
    61     1      3.35      10.05       13.4
    62     1     5.025     11.725     15.075
    63     1       0.0      10.05      16.75
    64     1     1.675     11.725     18.425
    65     1       0.0        6.7       20.1
    66     1     1.675      8.375     21.775
    67     1      3.35        6.7      23.45
    68     1     5.025      8.375     25.125
    69     1      3.35      10.05       20.1
    70     1     5.025     11.725     21.775
    71     1       0.0      10.05      23.45
    72     1     1.675     11.725     25.125
    73     1       0.0        6.7       26.8
    74     1     1.675      8.375     28.475
    75     1      3.35        6.7      30.15
    76     1     5.025      8.375     31.825
    77     1      3.35      10.05       26.8
    78     1     5.025     11.725     28.475
    79     1       0.0      10.05      30.15
    80     1     1.675     11.725     31.825
    81     1       0.0       13.4        0.0
    82     1     1.675     15.075      1.675
    83     1      3.35       13.4       3.35
    84     1     5.025     15.075      5.025
    85     1      3.35      16.75        0.0
    86     1     5.025     18.425      1.675
    87     1       0.0      16.75       3.35
    88     1     1.675     18.425      5.025
    89     1       0.0       13.4        6.7
    90     1     1.675     15.075      8.375
    91     1      3.35       13.4      10.05
    92     1     5.025     15.075     11.725
    93     1      3.35      16.75        6.7
    94     1     5.025     18.425      8.375
    95     1       0.0      16.75      10.05
    96     1     1.675     18.425     11.725
    97     1       0.0       13.4       13.4
    98     1     1.675     15.075     15.075
    99     1      3.35       13.4      16.75
   100     1     5.025     15.075     18.425
   101     1      3.35      16.75       13.4
   102     1     5.025     18.425     15.075
   103     1       0.0      16.75      16.75
   104     1     1.675     18.425     18.425
   105     1       0.0       13.4       20.1
   106     1     1.675     15.075     21.775
   107     1      3.35       13.4      23.45
   108     1     5.025     15.075     25.125
   109     1      3.35      16.75       20.1
   110     1     5.025     18.425     21.775
   111     1       0.0      16.75      23.45
   112     1     1.675     18.425     25.125
   113     1       0.0       13.4       26.8
   114     1     1.675     15.075     28.475
   115     1      3.35       13.4      30.15
   116     1     5.025     15.075     31.825
   117     1      3.35      16.75       26.8
   118     1     5.025     18.425     28.475
   119     1       0.0      16.75      30.15
   120     1     1.675     18.425     31.825
   121     1       0.0       20.1        0.0
   122     1     1.675     21.775      1.675
   123     1      3.35       20.1       3.35
   124     1     5.025     21.775      5.025
   125     1      3.35      23.45        0.0
   126     1     5.025     25.125      1.675
   127     1       0.0      23.45       3.35
   128     1     1.675     25.125      5.025
   129     1       0.0       20.1        6.7
   130     1     1.675     21.775      8.375
   131     1      3.35       20.1      10.05
   132     1     5.025     21.775     11.725
   133     1      3.35      23.45        6.7
   134     1     5.025     25.125      8.375
   135     1       0.0      23.45      10.05
   136     1     1.675     25.125     11.725
   137     1       0.0       20.1       13.4
   138     1     1.675     21.775     15.075
   139     1      3.35       20.1      16.75
   140     1     5.025     21.775     18.425
   141     1      3.35      23.45       13.4
   142     1     5.025     25.125     15.075
   143     1       0.0      23.45      16.75
   144     1     1.675     25.125     18.425
   145     1       0.0       20.1       20.1
   146     1     1.675     21.775     21.775
   147     1      3.35       20.1      23.45
   148     1     5.025     21.775     25.125
   149     1      3.35      23.45       20.1
   150     1     5.025     25.125     21.775
   151     1       0.0      23.45      23.45
   152     1     1.675     25.125     25.125
   153     1       0.0       20.1       26.8
   154     1     1.675     21.775     28.475
   155     1      3.35       20.1      30.15
   156     1     5.025     21.775     31.825
   157     1      3.35      23.45       26.8
   158     1     5.025     25.125     28.475
   159     1       0.0      23.45      30.15
   160     1     1.675     25.125     31.825
   161     1       0.0       26.8        0.0
   162     1     1.675     28.475      1.675
   163     1      3.35       26.8       3.35
   164     1     5.025     28.475      5.025
   165     1      3.35      30.15        0.0
   166     1     5.025     31.825      1.675
   167     1       0.0      30.15       3.35
   168     1     1.675     31.825      5.025
   169     1       0.0       26.8        6.7
   170     1     1.675     28.475      8.375
   171     1      3.35       26.8      10.05
   172     1     5.025     28.475     11.725
   173     1      3.35      30.15        6.7
   174     1     5.025     31.825      8.375
   175     1       0.0      30.15      10.05
   176     1     1.675     31.825     11.725
   177     1       0.0       26.8       13.4
   178     1     1.675     28.475     15.075
   179     1      3.35       26.8      16.75
   180     1     5.025     28.475     18.425
   181     1      3.35      30.15       13.4
   182     1     5.025     31.825     15.075
   183     1       0.0      30.15      16.75
   184     1     1.675     31.825     18.425
   185     1       0.0       26.8       20.1
   186     1     1.675     28.475     21.775
   187     1      3.35       26.8      23.45
   188     1     5.025     28.475     25.125
   189     1      3.35      30.15       20.1
   190     1     5.025     31.825     21.775
   191     1       0.0      30.15      23.45
   192     1     1.675     31.825     25.125
   193     1       0.0       26.8       26.8
   194     1     1.675     28.475     28.475
   195     1      3.35       26.8      30.15
   196     1     5.025     28.475     31.825
   197     1      3.35      30.15       26.8
   198     1     5.025     31.825     28.475
   199     1       0.0      30.15      30.15
   200     1     1.675     31.825     31.825
   201     1       6.7        0.0        0.0
   202     1     8.375      1.675      1.675
   203     1     10.05        0.0       3.35
   204     1    11.725      1.675      5.025
   205     1     10.05       3.35        0.0
   206     1    11.725      5.025      1.675
   207     1       6.7       3.35       3.35
   208     1     8.375      5.025      5.025
   209     1       6.7        0.0        6.7
   210     1     8.375      1.675      8.375
   211     1     10.05        0.0      10.05
   212     1    11.725      1.675     11.725
   213     1     10.05       3.35        6.7
   214     1    11.725      5.025      8.375
   215     1       6.7       3.35      10.05
   216     1     8.375      5.025     11.725
   217     1       6.7        0.0       13.4
   218     1     8.375      1.675     15.075
   219     1     10.05        0.0      16.75
   220     1    11.725      1.675     18.425
   221     1     10.05       3.35       13.4
   222     1    11.725      5.025     15.075
   223     1       6.7       3.35      16.75
   224     1     8.375      5.025     18.425
   225     1       6.7        0.0       20.1
   226     1     8.375      1.675     21.775
   227     1     10.05        0.0      23.45
   228     1    11.725      1.675     25.125
   229     1     10.05       3.35       20.1
   230     1    11.725      5.025     21.775
   231     1       6.7       3.35      23.45
   232     1     8.375      5.025     25.125
   233     1       6.7        0.0       26.8
   234     1     8.375      1.675     28.475
   235     1     10.05        0.0      30.15
   236     1    11.725      1.675     31.825
   237     1     10.05       3.35       26.8
   238     1    11.725      5.025     28.475
   239     1       6.7       3.35      30.15
   240     1     8.375      5.025     31.825
   241     1       6.7        6.7        0.0
   242     1     8.375      8.375      1.675
   243     1     10.05        6.7       3.35
   244     1    11.725      8.375      5.025
   245     1     10.05      10.05        0.0
   246     1    11.725     11.725      1.675
   247     1       6.7      10.05       3.35
   248     1     8.375     11.725      5.025
   249     1       6.7        6.7        6.7
   250     1     8.375      8.375      8.375
   251     1     10.05        6.7      10.05
   252     1    11.725      8.375     11.725
   253     1     10.05      10.05        6.7
   254     1    11.725     11.725      8.375
   255     1       6.7      10.05      10.05
   256     1     8.375     11.725     11.725
   257     1       6.7        6.7       13.4
   258     1     8.375      8.375     15.075
   259     1     10.05        6.7      16.75
   260     1    11.725      8.375     18.425
   261     1     10.05      10.05       13.4
   262     1    11.725     11.725     15.075
   263     1       6.7      10.05      16.75
   264     1     8.375     11.725     18.425
   265     1       6.7        6.7       20.1
   266     1     8.375      8.375     21.775
   267     1     10.05        6.7      23.45
   268     1    11.725      8.375     25.125
   269     1     10.05      10.05       20.1
   270     1    11.725     11.725     21.775
   271     1       6.7      10.05      23.45
   272     1     8.375     11.725     25.125
   273     1       6.7        6.7       26.8
   274     1     8.375      8.375     28.475
   275     1     10.05        6.7      30.15
   276     1    11.725      8.375     31.825
   277     1     10.05      10.05       26.8
   278     1    11.725     11.725     28.475
   279     1       6.7      10.05      30.15
   280     1     8.375     11.725     31.825
   281     1       6.7       13.4        0.0
   282     1     8.375     15.075      1.675
   283     1     10.05       13.4       3.35
   284     1    11.725     15.075      5.025
   285     1     10.05      16.75        0.0
   286     1    11.725     18.425      1.675
   287     1       6.7      16.75       3.35
   288     1     8.375     18.425      5.025
   289     1       6.7       13.4        6.7
   290     1     8.375     15.075      8.375
   291     1     10.05       13.4      10.05
   292     1    11.725     15.075     11.725
   293     1     10.05      16.75        6.7
   294     1    11.725     18.425      8.375
   295     1       6.7      16.75      10.05
   296     1     8.375     18.425     11.725
   297     1       6.7       13.4       13.4
   298     1     8.375     15.075     15.075
   299     1     10.05       13.4      16.75
   300     1    11.725     15.075     18.425
   301     1     10.05      16.75       13.4
   302     1    11.725     18.425     15.075
   303     1       6.7      16.75      16.75
   304     1     8.375     18.425     18.425
   305     1       6.7       13.4       20.1
   306     1     8.375     15.075     21.775
   307     1     10.05       13.4      23.45
   308     1    11.725     15.075     25.125
   309     1     10.05      16.75       20.1
   310     1    11.725     18.425     21.775
   311     1       6.7      16.75      23.45
   312     1     8.375     18.425     25.125
   313     1       6.7       13.4       26.8
   314     1     8.375     15.075     28.475
   315     1     10.05       13.4      30.15
   316     1    11.725     15.075     31.825
   317     1     10.05      16.75       26.8
   318     1    11.725     18.425     28.475
   319     1       6.7      16.75      30.15
   320     1     8.375     18.425     31.825
   321     1       6.7       20.1        0.0
   322     1     8.375     21.775      1.675
   323     1     10.05       20.1       3.35
   324     1    11.725     21.775      5.025
   325     1     10.05      23.45        0.0
   326     1    11.725     25.125      1.675
   327     1       6.7      23.45       3.35
   328     1     8.375     25.125      5.025
   329     1       6.7       20.1        6.7
   330     1     8.375     21.775      8.375
   331     1     10.05       20.1      10.05
   332     1    11.725     21.775     11.725
   333     1     10.05      23.45        6.7
   334     1    11.725     25.125      8.375
   335     1       6.7      23.45      10.05
   336     1     8.375     25.125     11.725
   337     1       6.7       20.1       13.4
   338     1     8.375     21.775     15.075
   339     1     10.05       20.1      16.75
   340     1    11.725     21.775     18.425
   341     1     10.05      23.45       13.4
   342     1    11.725     25.125     15.075
   343     1       6.7      23.45      16.75
   344     1     8.375     25.125     18.425
   345     1       6.7       20.1       20.1
   346     1     8.375     21.775     21.775
   347     1     10.05       20.1      23.45
   348     1    11.725     21.775     25.125
   349     1     10.05      23.45       20.1
   350     1    11.725     25.125     21.775
   351     1       6.7      23.45      23.45
   352     1     8.375     25.125     25.125
   353     1       6.7       20.1       26.8
   354     1     8.375     21.775     28.475
   355     1     10.05       20.1      30.15
   356     1    11.725     21.775     31.825
   357     1     10.05      23.45       26.8
   358     1    11.725     25.125     28.475
   359     1       6.7      23.45      30.15
   360     1     8.375     25.125     31.825
   361     1       6.7       26.8        0.0
   362     1     8.375     28.475      1.675
   363     1     10.05       26.8       3.35
   364     1    11.725     28.475      5.025
   365     1     10.05      30.15        0.0
   366     1    11.725     31.825      1.675
   367     1       6.7      30.15       3.35
   368     1     8.375     31.825      5.025
   369     1       6.7       26.8        6.7
   370     1     8.375     28.475      8.375
   371     1     10.05       26.8      10.05
   372     1    11.725     28.475     11.725
   373     1     10.05      30.15        6.7
   374     1    11.725     31.825      8.375
   375     1       6.7      30.15      10.05
   376     1     8.375     31.825     11.725
   377     1       6.7       26.8       13.4
   378     1     8.375     28.475     15.075
   379     1     10.05       26.8      16.75
   380     1    11.725     28.475     18.425
   381     1     10.05      30.15       13.4
   382     1    11.725     31.825     15.075
   383     1       6.7      30.15      16.75
   384     1     8.375     31.825     18.425
   385     1       6.7       26.8       20.1
   386     1     8.375     28.475     21.775
   387     1     10.05       26.8      23.45
   388     1    11.725     28.475     25.125
   389     1     10.05      30.15       20.1
   390     1    11.725     31.825     21.775
   391     1       6.7      30.15      23.45
   392     1     8.375     31.825     25.125
   393     1       6.7       26.8       26.8
   394     1     8.375     28.475     28.475
   395     1     10.05       26.8      30.15
   396     1    11.725     28.475     31.825
   397     1     10.05      30.15       26.8
   398     1    11.725     31.825     28.475
   399     1       6.7      30.15      30.15
   400     1     8.375     31.825     31.825
   401     1      13.4        0.0        0.0
   402     1    15.075      1.675      1.675
   403     1     16.75        0.0       3.35
   404     1    18.425      1.675      5.025
   405     1     16.75       3.35        0.0
   406     1    18.425      5.025      1.675
   407     1      13.4       3.35       3.35
   408     1    15.075      5.025      5.025
   409     1      13.4        0.0        6.7
   410     1    15.075      1.675      8.375
   411     1     16.75        0.0      10.05
   412     1    18.425      1.675     11.725
   413     1     16.75       3.35        6.7
   414     1    18.425      5.025      8.375
   415     1      13.4       3.35      10.05
   416     1    15.075      5.025     11.725
   417     1      13.4        0.0       13.4
   418     1    15.075      1.675     15.075
   419     1     16.75        0.0      16.75
   420     1    18.425      1.675     18.425
   421     1     16.75       3.35       13.4
   422     1    18.425      5.025     15.075
   423     1      13.4       3.35      16.75
   424     1    15.075      5.025     18.425
   425     1      13.4        0.0       20.1
   426     1    15.075      1.675     21.775
   427     1     16.75        0.0      23.45
   428     1    18.425      1.675     25.125
   429     1     16.75       3.35       20.1
   430     1    18.425      5.025     21.775
   431     1      13.4       3.35      23.45
   432     1    15.075      5.025     25.125
   433     1      13.4        0.0       26.8
   434     1    15.075      1.675     28.475
   435     1     16.75        0.0      30.15
   436     1    18.425      1.675     31.825
   437     1     16.75       3.35       26.8
   438     1    18.425      5.025     28.475
   439     1      13.4       3.35      30.15
   440     1    15.075      5.025     31.825
   441     1      13.4        6.7        0.0
   442     1    15.075      8.375      1.675
   443     1     16.75        6.7       3.35
   444     1    18.425      8.375      5.025
   445     1     16.75      10.05        0.0
   446     1    18.425     11.725      1.675
   447     1      13.4      10.05       3.35
   448     1    15.075     11.725      5.025
   449     1      13.4        6.7        6.7
   450     1    15.075      8.375      8.375
   451     1     16.75        6.7      10.05
   452     1    18.425      8.375     11.725
   453     1     16.75      10.05        6.7
   454     1    18.425     11.725      8.375
   455     1      13.4      10.05      10.05
   456     1    15.075     11.725     11.725
   457     1      13.4        6.7       13.4
   458     1    15.075      8.375     15.075
   459     1     16.75        6.7      16.75
   460     1    18.425      8.375     18.425
   461     1     16.75      10.05       13.4
   462     1    18.425     11.725     15.075
   463     1      13.4      10.05      16.75
   464     1    15.075     11.725     18.425
   465     1      13.4        6.7       20.1
   466     1    15.075      8.375     21.775
   467     1     16.75        6.7      23.45
   468     1    18.425      8.375     25.125
   469     1     16.75      10.05       20.1
   470     1    18.425     11.725     21.775
   471     1      13.4      10.05      23.45
   472     1    15.075     11.725     25.125
   473     1      13.4        6.7       26.8
   474     1    15.075      8.375     28.475
   475     1     16.75        6.7      30.15
   476     1    18.425      8.375     31.825
   477     1     16.75      10.05       26.8
   478     1    18.425     11.725     28.475
   479     1      13.4      10.05      30.15
   480     1    15.075     11.725     31.825
   481     1      13.4       13.4        0.0
   482     1    15.075     15.075      1.675
   483     1     16.75       13.4       3.35
   484     1    18.425     15.075      5.025
   485     1     16.75      16.75        0.0
   486     1    18.425     18.425      1.675
   487     1      13.4      16.75       3.35
   488     1    15.075     18.425      5.025
   489     1      13.4       13.4        6.7
   490     1    15.075     15.075      8.375
   491     1     16.75       13.4      10.05
   492     1    18.425     15.075     11.725
   493     1     16.75      16.75        6.7
   494     1    18.425     18.425      8.375
   495     1      13.4      16.75      10.05
   496     1    15.075     18.425     11.725
   497     1      13.4       13.4       13.4
   498     1    15.075     15.075     15.075
   499     1     16.75       13.4      16.75
   500     1    18.425     15.075     18.425
   501     1     16.75      16.75       13.4
   502     1    18.425     18.425     15.075
   503     1      13.4      16.75      16.75
   504     1    15.075     18.425     18.425
   505     1      13.4       13.4       20.1
   506     1    15.075     15.075     21.775
   507     1     16.75       13.4      23.45
   508     1    18.425     15.075     25.125
   509     1     16.75      16.75       20.1
   510     1    18.425     18.425     21.775
   511     1      13.4      16.75      23.45
   512     1    15.075     18.425     25.125
   513     1      13.4       13.4       26.8
   514     1    15.075     15.075     28.475
   515     1     16.75       13.4      30.15
   516     1    18.425     15.075     31.825
   517     1     16.75      16.75       26.8
   518     1    18.425     18.425     28.475
   519     1      13.4      16.75      30.15
   520     1    15.075     18.425     31.825
   521     1      13.4       20.1        0.0
   522     1    15.075     21.775      1.675
   523     1     16.75       20.1       3.35
   524     1    18.425     21.775      5.025
   525     1     16.75      23.45        0.0
   526     1    18.425     25.125      1.675
   527     1      13.4      23.45       3.35
   528     1    15.075     25.125      5.025
   529     1      13.4       20.1        6.7
   530     1    15.075     21.775      8.375
   531     1     16.75       20.1      10.05
   532     1    18.425     21.775     11.725
   533     1     16.75      23.45        6.7
   534     1    18.425     25.125      8.375
   535     1      13.4      23.45      10.05
   536     1    15.075     25.125     11.725
   537     1      13.4       20.1       13.4
   538     1    15.075     21.775     15.075
   539     1     16.75       20.1      16.75
   540     1    18.425     21.775     18.425
   541     1     16.75      23.45       13.4
   542     1    18.425     25.125     15.075
   543     1      13.4      23.45      16.75
   544     1    15.075     25.125     18.425
   545     1      13.4       20.1       20.1
   546     1    15.075     21.775     21.775
   547     1     16.75       20.1      23.45
   548     1    18.425     21.775     25.125
   549     1     16.75      23.45       20.1
   550     1    18.425     25.125     21.775
   551     1      13.4      23.45      23.45
   552     1    15.075     25.125     25.125
   553     1      13.4       20.1       26.8
   554     1    15.075     21.775     28.475
   555     1     16.75       20.1      30.15
   556     1    18.425     21.775     31.825
   557     1     16.75      23.45       26.8
   558     1    18.425     25.125     28.475
   559     1      13.4      23.45      30.15
   560     1    15.075     25.125     31.825
   561     1      13.4       26.8        0.0
   562     1    15.075     28.475      1.675
   563     1     16.75       26.8       3.35
   564     1    18.425     28.475      5.025
   565     1     16.75      30.15        0.0
   566     1    18.425     31.825      1.675
   567     1      13.4      30.15       3.35
   568     1    15.075     31.825      5.025
   569     1      13.4       26.8        6.7
   570     1    15.075     28.475      8.375
   571     1     16.75       26.8      10.05
   572     1    18.425     28.475     11.725
   573     1     16.75      30.15        6.7
   574     1    18.425     31.825      8.375
   575     1      13.4      30.15      10.05
   576     1    15.075     31.825     11.725
   577     1      13.4       26.8       13.4
   578     1    15.075     28.475     15.075
   579     1     16.75       26.8      16.75
   580     1    18.425     28.475     18.425
   581     1     16.75      30.15       13.4
   582     1    18.425     31.825     15.075
   583     1      13.4      30.15      16.75
   584     1    15.075     31.825     18.425
   585     1      13.4       26.8       20.1
   586     1    15.075     28.475     21.775
   587     1     16.75       26.8      23.45
   588     1    18.425     28.475     25.125
   589     1     16.75      30.15       20.1
   590     1    18.425     31.825     21.775
   591     1      13.4      30.15      23.45
   592     1    15.075     31.825     25.125
   593     1      13.4       26.8       26.8
   594     1    15.075     28.475     28.475
   595     1     16.75       26.8      30.15
   596     1    18.425     28.475     31.825
   597     1     16.75      30.15       26.8
   598     1    18.425     31.825     28.475
   599     1      13.4      30.15      30.15
   600     1    15.075     31.825     31.825
   601     1      20.1        0.0        0.0
   602     1    21.775      1.675      1.675
   603     1     23.45        0.0       3.35
   604     1    25.125      1.675      5.025
   605     1     23.45       3.35        0.0
   606     1    25.125      5.025      1.675
   607     1      20.1       3.35       3.35
   608     1    21.775      5.025      5.025
   609     1      20.1        0.0        6.7
   610     1    21.775      1.675      8.375
   611     1     23.45        0.0      10.05
   612     1    25.125      1.675     11.725
   613     1     23.45       3.35        6.7
   614     1    25.125      5.025      8.375
   615     1      20.1       3.35      10.05
   616     1    21.775      5.025     11.725
   617     1      20.1        0.0       13.4
   618     1    21.775      1.675     15.075
   619     1     23.45        0.0      16.75
   620     1    25.125      1.675     18.425
   621     1     23.45       3.35       13.4
   622     1    25.125      5.025     15.075
   623     1      20.1       3.35      16.75
   624     1    21.775      5.025     18.425
   625     1      20.1        0.0       20.1
   626     1    21.775      1.675     21.775
   627     1     23.45        0.0      23.45
   628     1    25.125      1.675     25.125
   629     1     23.45       3.35       20.1
   630     1    25.125      5.025     21.775
   631     1      20.1       3.35      23.45
   632     1    21.775      5.025     25.125
   633     1      20.1        0.0       26.8
   634     1    21.775      1.675     28.475
   635     1     23.45        0.0      30.15
   636     1    25.125      1.675     31.825
   637     1     23.45       3.35       26.8
   638     1    25.125      5.025     28.475
   639     1      20.1       3.35      30.15
   640     1    21.775      5.025     31.825
   641     1      20.1        6.7        0.0
   642     1    21.775      8.375      1.675
   643     1     23.45        6.7       3.35
   644     1    25.125      8.375      5.025
   645     1     23.45      10.05        0.0
   646     1    25.125     11.725      1.675
   647     1      20.1      10.05       3.35
   648     1    21.775     11.725      5.025
   649     1      20.1        6.7        6.7
   650     1    21.775      8.375      8.375
   651     1     23.45        6.7      10.05
   652     1    25.125      8.375     11.725
   653     1     23.45      10.05        6.7
   654     1    25.125     11.725      8.375
   655     1      20.1      10.05      10.05
   656     1    21.775     11.725     11.725
   657     1      20.1        6.7       13.4
   658     1    21.775      8.375     15.075
   659     1     23.45        6.7      16.75
   660     1    25.125      8.375     18.425